 +-------------------------------------------------+
 |                                                 |
 |      CCC   AA    SSS  TTTTT  EEEEE  PPPP        |
 |     C     A  A  S       T    E      P   P       |
 |     C     AAAA   SS     T    EEE    PPPP        |
 |     C     A  A     S    T    E      P           |
 |      CCC  A  A  SSS     T    EEEEE  P           |
 |                                                 |
 +-------------------------------------------------+
 |                                                 |
 | Welcome to Academic Release CASTEP version 17.2 |
 | Ab Initio Total Energy Program                  |
 |                                                 |
 | Authors:                                        |
 | M. Segall, M. Probert, C. Pickard, P. Hasnip,   |
 | S. Clark, K. Refson, J. R. Yates, M. Payne      |
 |                                                 |
 | Contributors:                                   |
 | P. Lindan, P. Haynes, J. White, V. Milman,      |
 | N. Govind, M. Gibson, P. Tulip, V. Cocula,      |
 | B. Montanari, D. Quigley, M. Glover,            |
 | L. Bernasconi, A. Perlov, M. Plummer,           |
 | E. McNellis, J. Meyer, J. Gale, D. Jochym       |
 | J. Aarons, B. Walker, R. Gillen, D. Jones       |
 | T. Green, I. J. Bush, C. J. Armstrong,          |
 | E. J. Higgins, E. L. Brown, M. S. McFly,        |
 | J. Wilkins, B-C. Shih, P. J. P. Byrne           |
 |                                                 |
 | Copyright (c) 2000 - 2017                       |
 |                                                 |
 |     Distributed under the terms of an           |
 |     Agreement between the United Kingdom        |
 |     Car-Parrinello (UKCP) Consortium,           |
 |     Daresbury Laboratory and Accelrys, Inc.     |
 |                                                 |
 | Please cite                                     |
 |                                                 |
 |     "First principles methods using CASTEP"     |
 |                                                 |
 |         Zeitschrift fuer Kristallographie       |
 |           220(5-6) pp. 567-570 (2005)           |
 |                                                 |
 | S. J. Clark, M. D. Segall, C. J. Pickard,       |
 | P. J. Hasnip, M. J. Probert, K. Refson,         |
 | M. C. Payne                                     |
 |                                                 |
 |       in all publications arising from          |
 |              your use of CASTEP                 |
 |                                                 |
 +-------------------------------------------------+


 Compiled for linux_x86_64_ifort15 on Wed, 22 Mar 2017 12:59:02 +0000
 from code version
 4947bf343853+ Castep172_branch Tue, 28 Feb 2017 17:24:36 +0000
 Compiler: Intel Fortran 15.0.3.187; Optimisation: fast
 MATHLIBS: Intel MKL(11.2.3) (LAPACK version 3.5.0)
 FFT Lib : mkl
 Fundamental constants values: CODATA 2010

 Run started: Fri, 17 Nov 2017 17:03:58 +0000

 Pseudo atomic calculation performed for Si 3s2 3p2

 Converged in 16 iterations to a total energy of -102.0354 eV

 Calculation parallelised over 4 processes.
 Data is distributed by G-vector(2-way) and k-point(2-way)

 ************************************ Title ************************************


 ***************************** General Parameters ******************************

 output verbosity                               : normal  (1)
 write checkpoint data to                       : aiida.check
 type of calculation                            : geometry optimization
 stress calculation                             : on
 density difference calculation                 : off
 electron localisation func (ELF) calculation   : off
 Hirshfeld analysis                             : off
 unlimited duration calculation
 timing information                             : on
 memory usage estimate                          : on
 write final potential to formatted file        : off
 write final density to formatted file          : off
 write BibTeX reference list                    : off
 write OTFG pseudopotential files               : on
 write electrostatic potential file             : on
 write bands file                               : on
 checkpoint writing                             : off

 output         length unit                     : A
 output           mass unit                     : amu
 output           time unit                     : ps
 output         charge unit                     : e
 output           spin unit                     : hbar/2
 output         energy unit                     : eV
 output          force unit                     : eV/A
 output       velocity unit                     : A/ps
 output       pressure unit                     : GPa
 output     inv_length unit                     : 1/A
 output      frequency unit                     : cm-1
 output force constant unit                     : eV/A**2
 output         volume unit                     : A**3
 output   IR intensity unit                     : (D/A)**2/amu
 output         dipole unit                     : D
 output         efield unit                     : eV/A/e
 output        entropy unit                     : J/mol/K

 wavefunctions paging                           : none
 random number generator seed                   : randomised (170358510)
 data distribution                              : optimal for this architecture
 optimization strategy                          : maximize speed(+++)

 *********************** Exchange-Correlation Parameters ***********************

 using functional                               : Local Density Approximation
 relativistic treatment                         : Koelling-Harmon
 DFT+D: Semi-empirical dispersion correction    : off

 ************************* Pseudopotential Parameters **************************

 pseudopotential representation                 : reciprocal space
 <beta|phi> representation                      : reciprocal space
 spin-orbit coupling                            : off

 **************************** Basis Set Parameters *****************************

 basis set accuracy                             : MEDIUM
 plane wave basis set cut-off                   :   120.0000   eV
 size of standard grid                          :     1.7500
 size of   fine   gmax                          :     9.8213   1/A
 finite basis set correction                    : automatic
 number of sample energies                      :          3
           sample  spacing                      :     5.0000   eV

 **************************** Electronic Parameters ****************************

 number of  electrons                           :  8.000
 net charge of system                           :  0.000
 treating system as non-spin-polarized
 number of bands                                :          8

 ********************* Electronic Minimization Parameters **********************

 Method: Treating system as metallic with density mixing treatment of electrons,
         and number of  SD  steps               :          1
         and number of  CG  steps               :          4

 total energy / atom convergence tol.           : 0.1000E-04   eV
 eigen-energy convergence tolerance             : 0.1000E-05   eV
 max force / atom convergence tol.              : ignored
 convergence tolerance window                   :          3   cycles
 max. number of SCF cycles                      :         30
 number of fixed-spin iterations                :         10
 smearing scheme                                : Gaussian
 smearing width                                 : 0.2000       eV
 Fermi energy convergence tolerance             : 0.2721E-13   eV
 periodic dipole correction                     : NONE

 ************************** Density Mixing Parameters **************************

 density-mixing scheme                          : Broyden
 max. length of mixing history                  :         20
 charge density mixing amplitude                : 0.8000

 *********************** Population Analysis Parameters ************************

 Population analysis with cutoff                :  3.000       A

 ********************** Geometry Optimization Parameters ***********************

 optimization method                            : BFGS
 variable cell method                           : fixed basis quality
 max. number of steps                           :         30
 estimated bulk modulus                         :  500.0       GPa
 estimated <frequency>                          :  1668.       cm-1
 geom line minimiser                            : on
 with line minimiser tolerance                  :     0.4000
 total energy convergence tolerance             : 0.2000E-04   eV/atom
        max ionic |force| tolerance             : 0.5000E-01   eV/A
 max ionic |displacement| tolerance             : 0.1000E-02   A
   max |stress component| tolerance             : 0.1000       GPa
 convergence tolerance window                   :          2   steps
 backup results every                           :          5   steps
 write geom trajectory file                     : on

 *******************************************************************************


                           -------------------------------
                                      Unit Cell
                           -------------------------------
        Real Lattice(A)                      Reciprocal Lattice(1/A)
   2.6954645   2.6954645   0.0000000        1.1655107   1.1655107  -1.1655107
   2.6954645   0.0000000   2.6954645        1.1655107  -1.1655107   1.1655107
   0.0000000   2.6954645   2.6954645       -1.1655107   1.1655107   1.1655107

                       Lattice parameters(A)       Cell Angles
                    a =    3.811962          alpha =   60.000000
                    b =    3.811962          beta  =   60.000000
                    c =    3.811962          gamma =   60.000000

                       Current cell volume =   39.167950       A**3
                                   density =    1.434106   AMU/A**3
                                           =    2.381389     g/cm^3

                           -------------------------------
                                     Cell Contents
                           -------------------------------
                         Total number of ions in cell =    2
                      Total number of species in cell =    1
                        Max number of any one species =    2

            xxxxxxxxxxxxxxxxxxxxxxxxxxxxxxxxxxxxxxxxxxxxxxxxxxxxxxxxxxxx
            x  Element    Atom        Fractional coordinates of atoms  x
            x            Number           u          v          w      x
            x----------------------------------------------------------x
            x  Si           1         0.000000   0.000000   0.000000   x
            x  Si           2         0.250000   0.250000   0.250000   x
            xxxxxxxxxxxxxxxxxxxxxxxxxxxxxxxxxxxxxxxxxxxxxxxxxxxxxxxxxxxx


                         No user defined ionic velocities

                           -------------------------------
                                   Details of Species
                           -------------------------------

                               Mass of species in AMU
                                    Si   28.0855000

                          Electric Quadrupole Moment (Barn)
                                    Si    1.0000000 No Isotope Defined

                          Files used for pseudopotentials:
                                    Si Si_00.usp

                           -------------------------------
                              k-Points For BZ Sampling
                           -------------------------------
                       MP grid size for SCF calculation is  4  4  4
                            with an offset of   0.000  0.000  0.000
                       Number of kpoints used =            10

                           -------------------------------
                               Symmetry and Constraints
                           -------------------------------

                      Maximum deviation from symmetry =  0.00000         ANG

                      Number of symmetry operations   =          48
                      Number of ionic constraints     =           3
                      Point group of crystal =    32: Oh, m-3m, 4/m -3 2/m
                      Space group of crystal =   227: Fd-3m, F 4d 2 3 -1d

             Set iprint > 1 for details on symmetry rotations/translations

                         Centre of mass is constrained
             Set iprint > 1 for details of linear ionic constraints

                         Number of cell constraints= 5
                         Cell constraints are:  1 1 1 0 0 0

                         External pressure/stress (GPa)
                          0.00000   0.00000   0.00000
                                    0.00000   0.00000
                                              0.00000

+---------------- MEMORY AND SCRATCH DISK ESTIMATES PER PROCESS --------------+
|                                                     Memory          Disk    |
| Baseline code, static data and system overhead       82.0 MB         0.0 MB |
| BLAS internal memory storage                          0.0 MB         0.0 MB |
| Model and support data                                2.9 MB         0.0 MB |
| Electronic energy minimisation requirements           0.3 MB         0.0 MB |
| Force calculation requirements                        0.1 MB         0.0 MB |
| Stress calculation requirements                       0.1 MB         0.0 MB |
|                                               ----------------------------- |
| Approx. total storage required per process           85.2 MB         0.0 MB |
|                                                                             |
| Requirements will fluctuate during execution and may exceed these estimates |
+-----------------------------------------------------------------------------+
Calculating finite basis set correction with  3 cut-off energies.
Calculating total energy with cut-off of  110.000 eV.
------------------------------------------------------------------------ <-- SCF
SCF loop      Energy           Fermi           Energy gain       Timer   <-- SCF
                               energy          per atom          (sec)   <-- SCF
------------------------------------------------------------------------ <-- SCF
Initial   9.58330184E+001  0.00000000E+000                         0.22  <-- SCF
      1  -1.91763116E+002  9.22048407E+000   1.43798067E+002       0.25  <-- SCF
      2  -2.15260519E+002  6.60115468E+000   1.17487016E+001       0.27  <-- SCF
      3  -2.16143026E+002  6.30138429E+000   4.41253415E-001       0.30  <-- SCF
      4  -2.15925309E+002  6.54364948E+000  -1.08858434E-001       0.33  <-- SCF
      5  -2.15911061E+002  6.64692521E+000  -7.12427915E-003       0.35  <-- SCF
      6  -2.15911630E+002  6.65103619E+000   2.84857760E-004       0.37  <-- SCF
      7  -2.15911697E+002  6.65456561E+000   3.32586558E-005       0.39  <-- SCF
      8  -2.15911697E+002  6.65460975E+000  -7.38293953E-008       0.41  <-- SCF
      9  -2.15911696E+002  6.65461660E+000  -5.65404715E-007       0.42  <-- SCF
------------------------------------------------------------------------ <-- SCF

Final energy, E             =  -215.9116917284     eV
Final free energy (E-TS)    =  -215.9116956319     eV
(energies not corrected for finite basis set)

NB est. 0K energy (E-0.5TS)      =  -215.9116936802     eV

Calculating total energy with cut-off of  115.000 eV.
------------------------------------------------------------------------ <-- SCF
SCF loop      Energy           Fermi           Energy gain       Timer   <-- SCF
                               energy          per atom          (sec)   <-- SCF
------------------------------------------------------------------------ <-- SCF
Initial  -2.16048586E+002  0.00000000E+000                         0.44  <-- SCF
      1  -2.15973120E+002  6.64734074E+000  -3.77327519E-002       0.46  <-- SCF
      2  -2.15973207E+002  6.64732833E+000   4.32823374E-005       0.48  <-- SCF
      3  -2.15973232E+002  6.64879984E+000   1.28331915E-005       0.50  <-- SCF
      4  -2.15973213E+002  6.64929573E+000  -9.52963645E-006       0.52  <-- SCF
      5  -2.15973217E+002  6.64923880E+000   1.67172819E-006       0.53  <-- SCF
------------------------------------------------------------------------ <-- SCF

Final energy, E             =  -215.9732118295     eV
Final free energy (E-TS)    =  -215.9732165869     eV
(energies not corrected for finite basis set)

NB est. 0K energy (E-0.5TS)      =  -215.9732142082     eV

Calculating total energy with cut-off of  120.000 eV.
------------------------------------------------------------------------ <-- SCF
SCF loop      Energy           Fermi           Energy gain       Timer   <-- SCF
                               energy          per atom          (sec)   <-- SCF
------------------------------------------------------------------------ <-- SCF
Initial  -2.16110306E+002  0.00000000E+000                         0.54  <-- SCF
      1  -2.16029818E+002  6.63571442E+000  -4.02438413E-002       0.56  <-- SCF
      2  -2.16029893E+002  6.63567541E+000   3.75229160E-005       0.59  <-- SCF
      3  -2.16029948E+002  6.63682924E+000   2.73551010E-005       0.60  <-- SCF
      4  -2.16029934E+002  6.63721170E+000  -6.62843949E-006       0.62  <-- SCF
      5  -2.16029937E+002  6.63717874E+000   1.18349028E-006       0.64  <-- SCF
------------------------------------------------------------------------ <-- SCF

Final energy, E             =  -216.0299324123     eV
Final free energy (E-TS)    =  -216.0299367739     eV
(energies not corrected for finite basis set)

NB est. 0K energy (E-0.5TS)      =  -216.0299345931     eV

 For future reference: finite basis dEtot/dlog(Ecut) =      -1.313172eV
 Total energy corrected for finite basis set =    -216.028366 eV

+---------------- MEMORY AND SCRATCH DISK ESTIMATES PER PROCESS --------------+
|                                                     Memory          Disk    |
| Model and support data                               13.8 MB         0.0 MB |
| Electronic energy minimisation requirements           0.3 MB         0.0 MB |
| Geometry minimisation requirements                    0.5 MB         0.0 MB |
|                                               ----------------------------- |
| Approx. total storage required per process           14.6 MB         0.0 MB |
|                                                                             |
| Requirements will fluctuate during execution and may exceed these estimates |
+-----------------------------------------------------------------------------+


 *********** Symmetrised Stress Tensor ***********
 *                                               *
 *          Cartesian components (GPa)           *
 * --------------------------------------------- *
 *             x             y             z     *
 *                                               *
 *  x     -2.847547      0.000000      0.000000  *
 *  y      0.000000     -2.847547      0.000000  *
 *  z      0.000000      0.000000     -2.847547  *
 *                                               *
 *  Pressure:    2.8475                          *
 *                                               *
 *************************************************
 BFGS: finished iteration     0 with enthalpy= -2.16028366E+002 eV

 +-----------+-----------------+-----------------+------------+-----+ <-- BFGS
 | Parameter |      value      |    tolerance    |    units   | OK? | <-- BFGS
 +-----------+-----------------+-----------------+------------+-----+ <-- BFGS
 |  dE/ion   |   0.000000E+000 |   2.000000E-005 |         eV | No  | <-- BFGS
 |   Smax    |   2.847547E+000 |   1.000000E-001 |        GPa | No  | <-- BFGS
 +-----------+-----------------+-----------------+------------+-----+ <-- BFGS


================================================================================
 Starting BFGS iteration          1 ...
================================================================================

 +------------+-------------+-------------+-----------------+ <-- min BFGS
 |    Step    |   lambda    |   F.delta'  |    enthalpy     | <-- min BFGS
 +------------+-------------+-------------+-----------------+ <-- min BFGS
 |  previous  |    0.000000 |    0.044310 |     -216.028366 | <-- min BFGS
 +------------+-------------+-------------+-----------------+ <-- min BFGS


--------------------------------------------------------------------------------
 BFGS: starting iteration         1 with trial guess (lambda=  1.000000)
--------------------------------------------------------------------------------

                           -------------------------------
                                      Unit Cell
                           -------------------------------
        Real Lattice(A)              Reciprocal Lattice(1/A)
   2.7005815   2.7005815   0.0000000        1.1633023   1.1633023  -1.1633023
   2.7005815   0.0000000   2.7005815        1.1633023  -1.1633023   1.1633023
   0.0000000   2.7005815   2.7005815       -1.1633023   1.1633023   1.1633023

                       Lattice parameters(A)       Cell Angles
                    a =    3.819199          alpha =   60.000000
                    b =    3.819199          beta  =   60.000000
                    c =    3.819199          gamma =   60.000000

                Current cell volume =   39.391439 A**3

------------------------------------------------------------------------ <-- SCF
SCF loop      Energy           Fermi           Energy gain       Timer   <-- SCF
                               energy          per atom          (sec)   <-- SCF
------------------------------------------------------------------------ <-- SCF
Initial  -2.16165089E+002  0.00000000E+000                         0.66  <-- SCF
      1  -2.16027300E+002  6.57494054E+000  -6.88945526E-002       0.68  <-- SCF
      2  -2.16027301E+002  6.57494033E+000   4.92775700E-007       0.70  <-- SCF
      3  -2.16027005E+002  6.58031288E+000  -1.48053134E-004       0.73  <-- SCF
      4  -2.16026978E+002  6.58227572E+000  -1.38108764E-005       0.74  <-- SCF
      5  -2.16026982E+002  6.58235428E+000   2.01022865E-006       0.76  <-- SCF
      6  -2.16026982E+002  6.58240943E+000   3.09499623E-008       0.77  <-- SCF
------------------------------------------------------------------------ <-- SCF

Final energy, E             =  -216.0269777596     eV
Final free energy (E-TS)    =  -216.0269816518     eV
(energies not corrected for finite basis set)

NB est. 0K energy (E-0.5TS)      =  -216.0269797057     eV


 *********** Symmetrised Stress Tensor ***********
 *                                               *
 *          Cartesian components (GPa)           *
 * --------------------------------------------- *
 *             x             y             z     *
 *                                               *
 *  x     -2.307514      0.000000      0.000000  *
 *  y      0.000000     -2.307514      0.000000  *
 *  z      0.000000      0.000000     -2.307514  *
 *                                               *
 *  Pressure:    2.3075                          *
 *                                               *
 *************************************************

 +------------+-------------+-------------+-----------------+ <-- min BFGS
 |    Step    |   lambda    |   F.delta'  |    enthalpy     | <-- min BFGS
 +------------+-------------+-------------+-----------------+ <-- min BFGS
 |  previous  |    0.000000 |    0.044310 |     -216.028366 | <-- min BFGS
 | trial step |    1.000000 |    0.036043 |     -216.030391 | <-- min BFGS
 +------------+-------------+-------------+-----------------+ <-- min BFGS


--------------------------------------------------------------------------------
 BFGS: improving iteration         1 with line minimization (lambda=  5.359948)
--------------------------------------------------------------------------------

+---------------- MEMORY AND SCRATCH DISK ESTIMATES PER PROCESS --------------+
|                                                     Memory          Disk    |
| Model and support data                               14.2 MB         0.0 MB |
| Electronic energy minimisation requirements           0.5 MB         0.0 MB |
| Geometry minimisation requirements                    0.6 MB         0.0 MB |
|                                               ----------------------------- |
| Approx. total storage required per process           15.2 MB         0.0 MB |
|                                                                             |
| Requirements will fluctuate during execution and may exceed these estimates |
+-----------------------------------------------------------------------------+


                           -------------------------------
                                      Unit Cell
                           -------------------------------
        Real Lattice(A)              Reciprocal Lattice(1/A)
   2.7228912   2.7228912   0.0000000        1.1537709   1.1537709  -1.1537709
   2.7228912   0.0000000   2.7228912        1.1537709  -1.1537709   1.1537709
   0.0000000   2.7228912   2.7228912       -1.1537709   1.1537709   1.1537709

                       Lattice parameters(A)       Cell Angles
                    a =    3.850750          alpha =   60.000000
                    b =    3.850750          beta  =   60.000000
                    c =    3.850750          gamma =   60.000000

                Current cell volume =   40.375775 A**3

------------------------------------------------------------------------ <-- SCF
SCF loop      Energy           Fermi           Energy gain       Timer   <-- SCF
                               energy          per atom          (sec)   <-- SCF
------------------------------------------------------------------------ <-- SCF
Initial  -2.16002997E+002  0.00000000E+000                         0.86  <-- SCF
      1  -2.16023896E+002  6.31163380E+000   1.04493279E-002       0.88  <-- SCF
      2  -2.16023966E+002  6.31162930E+000   3.49545691E-005       0.91  <-- SCF
      3  -2.16021366E+002  6.33476372E+000  -1.30004856E-003       0.94  <-- SCF
      4  -2.16021258E+002  6.34355380E+000  -5.40062918E-005       0.97  <-- SCF
      5  -2.16021271E+002  6.34386698E+000   6.63199734E-006       0.98  <-- SCF
      6  -2.16021272E+002  6.34407835E+000   2.93870102E-007       1.00  <-- SCF
------------------------------------------------------------------------ <-- SCF

Final energy, E             =  -216.0212692979     eV
Final free energy (E-TS)    =  -216.0212717224     eV
(energies not corrected for finite basis set)

NB est. 0K energy (E-0.5TS)      =  -216.0212705102     eV


 *********** Symmetrised Stress Tensor ***********
 *                                               *
 *          Cartesian components (GPa)           *
 * --------------------------------------------- *
 *             x             y             z     *
 *                                               *
 *  x      2.268163      0.000000      0.000000  *
 *  y      0.000000      2.268163      0.000000  *
 *  z      0.000000      0.000000      2.268163  *
 *                                               *
 *  Pressure:   -2.2682                          *
 *                                               *
 *************************************************

 +------------+-------------+-------------+-----------------+ <-- min BFGS
 |    Step    |   lambda    |   F.delta'  |    enthalpy     | <-- min BFGS
 +------------+-------------+-------------+-----------------+ <-- min BFGS
 |  previous  |    0.000000 |    0.044310 |     -216.028366 | <-- min BFGS
 | trial step |    1.000000 |    0.036043 |     -216.030391 | <-- min BFGS
 |  line step |    5.359948 |   -0.036016 |     -216.026269 | <-- min BFGS
 +------------+-------------+-------------+-----------------+ <-- min BFGS


--------------------------------------------------------------------------------
 BFGS: improving iteration         1 with quad minimization (lambda=  3.180787)
--------------------------------------------------------------------------------

                           -------------------------------
                                      Unit Cell
                           -------------------------------
        Real Lattice(A)              Reciprocal Lattice(1/A)
   2.7117405   2.7117405   0.0000000        1.1585152   1.1585152  -1.1585152
   2.7117405   0.0000000   2.7117405        1.1585152  -1.1585152   1.1585152
   0.0000000   2.7117405   2.7117405       -1.1585152   1.1585152   1.1585152

                       Lattice parameters(A)       Cell Angles
                    a =    3.834980          alpha =   60.000000
                    b =    3.834980          beta  =   60.000000
                    c =    3.834980          gamma =   60.000000

                Current cell volume =   39.881766 A**3

------------------------------------------------------------------------ <-- SCF
SCF loop      Energy           Fermi           Energy gain       Timer   <-- SCF
                               energy          per atom          (sec)   <-- SCF
------------------------------------------------------------------------ <-- SCF
Initial  -2.16176107E+002  0.00000000E+000                         1.03  <-- SCF
      1  -2.16033689E+002  6.48011044E+000  -7.12088515E-002       1.05  <-- SCF
      2  -2.16033693E+002  6.48010946E+000   2.01985183E-006       1.07  <-- SCF
      3  -2.16033484E+002  6.46893080E+000  -1.04666041E-004       1.09  <-- SCF
      4  -2.16033483E+002  6.46481145E+000  -4.90164274E-007       1.11  <-- SCF
      5  -2.16033475E+002  6.46464477E+000  -3.79749409E-006       1.13  <-- SCF
------------------------------------------------------------------------ <-- SCF

Final energy, E             =  -216.0334723466     eV
Final free energy (E-TS)    =  -216.0334754242     eV
(energies not corrected for finite basis set)

NB est. 0K energy (E-0.5TS)      =  -216.0334738854     eV


 *********** Symmetrised Stress Tensor ***********
 *                                               *
 *          Cartesian components (GPa)           *
 * --------------------------------------------- *
 *             x             y             z     *
 *                                               *
 *  x     -1.223446      0.000000      0.000000  *
 *  y      0.000000     -1.223446      0.000000  *
 *  z      0.000000      0.000000     -1.223446  *
 *                                               *
 *  Pressure:    1.2234                          *
 *                                               *
 *************************************************

 +------------+-------------+-------------+-----------------+ <-- min BFGS
 |    Step    |   lambda    |   F.delta'  |    enthalpy     | <-- min BFGS
 +------------+-------------+-------------+-----------------+ <-- min BFGS
 |  previous  |    0.000000 |    0.044310 |     -216.028366 | <-- min BFGS
 | trial step |    1.000000 |    0.036043 |     -216.030391 | <-- min BFGS
 |  line step |    5.359948 |   -0.036016 |     -216.026269 | <-- min BFGS
 |  quad step |    3.180787 |    0.019268 |     -216.030382 | <-- min BFGS
 +------------+-------------+-------------+-----------------+ <-- min BFGS

 BFGS: finished iteration     1 with enthalpy= -2.16030382E+002 eV

 +-----------+-----------------+-----------------+------------+-----+ <-- BFGS
 | Parameter |      value      |    tolerance    |    units   | OK? | <-- BFGS
 +-----------+-----------------+-----------------+------------+-----+ <-- BFGS
 |  dE/ion   |   1.008194E-003 |   2.000000E-005 |         eV | No  | <-- BFGS
 |   Smax    |   1.223446E+000 |   1.000000E-001 |        GPa | No  | <-- BFGS
 +-----------+-----------------+-----------------+------------+-----+ <-- BFGS


================================================================================
 Starting BFGS iteration          2 ...
================================================================================

 +------------+-------------+-------------+-----------------+ <-- min BFGS
 |    Step    |   lambda    |   F.delta'  |    enthalpy     | <-- min BFGS
 +------------+-------------+-------------+-----------------+ <-- min BFGS
 |  previous  |    0.000000 |    0.019268 |     -216.030382 | <-- min BFGS
 +------------+-------------+-------------+-----------------+ <-- min BFGS


--------------------------------------------------------------------------------
 BFGS: starting iteration         2 with trial guess (lambda=  1.000000)
--------------------------------------------------------------------------------

                           -------------------------------
                                      Unit Cell
                           -------------------------------
        Real Lattice(A)              Reciprocal Lattice(1/A)
   2.7242641   2.7242641   0.0000000        1.1531895   1.1531895  -1.1531895
   2.7242641   0.0000000   2.7242641        1.1531895  -1.1531895   1.1531895
   0.0000000   2.7242641   2.7242641       -1.1531895   1.1531895   1.1531895

                       Lattice parameters(A)       Cell Angles
                    a =    3.852691          alpha =   60.000000
                    b =    3.852691          beta  =   60.000000
                    c =    3.852691          gamma =   60.000000

                Current cell volume =   40.436879 A**3

------------------------------------------------------------------------ <-- SCF
SCF loop      Energy           Fermi           Energy gain       Timer   <-- SCF
                               energy          per atom          (sec)   <-- SCF
------------------------------------------------------------------------ <-- SCF
Initial  -2.16023777E+002  0.00000000E+000                         1.16  <-- SCF
      1  -2.16027646E+002  6.31218761E+000   1.93449525E-003       1.18  <-- SCF
      2  -2.16027682E+002  6.31218631E+000   1.77955334E-005       1.21  <-- SCF
      3  -2.16026856E+002  6.32495635E+000  -4.13111597E-004       1.24  <-- SCF
      4  -2.16026835E+002  6.32979125E+000  -1.02080685E-005       1.28  <-- SCF
      5  -2.16026842E+002  6.32996864E+000   3.43735782E-006       1.30  <-- SCF
      6  -2.16026842E+002  6.33008592E+000   1.40756091E-007       1.32  <-- SCF
------------------------------------------------------------------------ <-- SCF

Final energy, E             =  -216.0268399949     eV
Final free energy (E-TS)    =  -216.0268423609     eV
(energies not corrected for finite basis set)

NB est. 0K energy (E-0.5TS)      =  -216.0268411779     eV


 *********** Symmetrised Stress Tensor ***********
 *                                               *
 *          Cartesian components (GPa)           *
 * --------------------------------------------- *
 *             x             y             z     *
 *                                               *
 *  x      2.357375     -0.000000      0.000000  *
 *  y     -0.000000      2.357375      0.000000  *
 *  z      0.000000      0.000000      2.357375  *
 *                                               *
 *  Pressure:   -2.3574                          *
 *                                               *
 *************************************************

 +------------+-------------+-------------+-----------------+ <-- min BFGS
 |    Step    |   lambda    |   F.delta'  |    enthalpy     | <-- min BFGS
 +------------+-------------+-------------+-----------------+ <-- min BFGS
 |  previous  |    0.000000 |    0.019268 |     -216.030382 | <-- min BFGS
 | trial step |    1.000000 |   -0.037471 |     -216.025024 | <-- min BFGS
 +------------+-------------+-------------+-----------------+ <-- min BFGS


--------------------------------------------------------------------------------
 BFGS: improving iteration         2 with line minimization (lambda=  0.339596)
--------------------------------------------------------------------------------

                           -------------------------------
                                      Unit Cell
                           -------------------------------
        Real Lattice(A)              Reciprocal Lattice(1/A)
   2.7159935   2.7159935   0.0000000        1.1567011   1.1567011  -1.1567011
   2.7159935   0.0000000   2.7159935        1.1567011  -1.1567011   1.1567011
   0.0000000   2.7159935   2.7159935       -1.1567011   1.1567011   1.1567011

                       Lattice parameters(A)       Cell Angles
                    a =    3.840995          alpha =   60.000000
                    b =    3.840995          beta  =   60.000000
                    c =    3.840995          gamma =   60.000000

                Current cell volume =   40.069707 A**3

------------------------------------------------------------------------ <-- SCF
SCF loop      Energy           Fermi           Energy gain       Timer   <-- SCF
                               energy          per atom          (sec)   <-- SCF
------------------------------------------------------------------------ <-- SCF
Initial  -2.16037803E+002  0.00000000E+000                         1.39  <-- SCF
      1  -2.16028784E+002  6.42794507E+000  -4.50990251E-003       1.42  <-- SCF
      2  -2.16028787E+002  6.42794454E+000   1.52992645E-006       1.45  <-- SCF
      3  -2.16028496E+002  6.41926606E+000  -1.45102421E-004       1.47  <-- SCF
      4  -2.16028457E+002  6.41606632E+000  -1.98251839E-005       1.50  <-- SCF
      5  -2.16028453E+002  6.41592044E+000  -1.78497341E-006       1.52  <-- SCF
      6  -2.16028453E+002  6.41582895E+000  -5.31390614E-008       1.54  <-- SCF
------------------------------------------------------------------------ <-- SCF

Final energy, E             =  -216.0284502955     eV
Final free energy (E-TS)    =  -216.0284530989     eV
(energies not corrected for finite basis set)

NB est. 0K energy (E-0.5TS)      =  -216.0284516972     eV


 *********** Symmetrised Stress Tensor ***********
 *                                               *
 *          Cartesian components (GPa)           *
 * --------------------------------------------- *
 *             x             y             z     *
 *                                               *
 *  x      1.596876     -0.000000      0.000000  *
 *  y     -0.000000      1.596876      0.000000  *
 *  z      0.000000      0.000000      1.596876  *
 *                                               *
 *  Pressure:   -1.5969                          *
 *                                               *
 *************************************************

 +------------+-------------+-------------+-----------------+ <-- min BFGS
 |    Step    |   lambda    |   F.delta'  |    enthalpy     | <-- min BFGS
 +------------+-------------+-------------+-----------------+ <-- min BFGS
 |  previous  |    0.000000 |    0.019268 |     -216.030382 | <-- min BFGS
 | trial step |    1.000000 |   -0.037471 |     -216.025024 | <-- min BFGS
 |  line step |    0.339596 |   -0.025229 |     -216.029475 | <-- min BFGS
 +------------+-------------+-------------+-----------------+ <-- min BFGS


--------------------------------------------------------------------------------
 BFGS: improving iteration         2 with quad minimization (lambda=  0.002240)
--------------------------------------------------------------------------------

                           -------------------------------
                                      Unit Cell
                           -------------------------------
        Real Lattice(A)              Reciprocal Lattice(1/A)
   2.7117686   2.7117686   0.0000000        1.1585032   1.1585032  -1.1585032
   2.7117686   0.0000000   2.7117686        1.1585032  -1.1585032   1.1585032
   0.0000000   2.7117686   2.7117686       -1.1585032   1.1585032   1.1585032

                       Lattice parameters(A)       Cell Angles
                    a =    3.835020          alpha =   60.000000
                    b =    3.835020          beta  =   60.000000
                    c =    3.835020          gamma =   60.000000

                Current cell volume =   39.883004 A**3

------------------------------------------------------------------------ <-- SCF
SCF loop      Energy           Fermi           Energy gain       Timer   <-- SCF
                               energy          per atom          (sec)   <-- SCF
------------------------------------------------------------------------ <-- SCF
Initial  -2.16177515E+002  0.00000000E+000                         1.57  <-- SCF
      1  -2.16033391E+002  6.46974368E+000  -7.20621239E-002       1.59  <-- SCF
      2  -2.16033392E+002  6.46974355E+000   2.41872691E-007       1.61  <-- SCF
      3  -2.16033443E+002  6.46580624E+000   2.55590043E-005       1.63  <-- SCF
      4  -2.16033453E+002  6.46432151E+000   4.89966861E-006       1.64  <-- SCF
      5  -2.16033448E+002  6.46431855E+000  -2.26666514E-006       1.66  <-- SCF
------------------------------------------------------------------------ <-- SCF

Final energy, E             =  -216.0334450302     eV
Final free energy (E-TS)    =  -216.0334481084     eV
(energies not corrected for finite basis set)

NB est. 0K energy (E-0.5TS)      =  -216.0334465693     eV


 *********** Symmetrised Stress Tensor ***********
 *                                               *
 *          Cartesian components (GPa)           *
 * --------------------------------------------- *
 *             x             y             z     *
 *                                               *
 *  x     -1.221589      0.000000      0.000000  *
 *  y      0.000000     -1.221589      0.000000  *
 *  z      0.000000      0.000000     -1.221589  *
 *                                               *
 *  Pressure:    1.2216                          *
 *                                               *
 *************************************************

 +------------+-------------+-------------+-----------------+ <-- min BFGS
 |    Step    |   lambda    |   F.delta'  |    enthalpy     | <-- min BFGS
 +------------+-------------+-------------+-----------------+ <-- min BFGS
 |  previous  |    0.000000 |    0.019268 |     -216.030382 | <-- min BFGS
 | trial step |    1.000000 |   -0.037471 |     -216.025024 | <-- min BFGS
 |  line step |    0.339596 |   -0.025229 |     -216.029475 | <-- min BFGS
 |  quad step |    0.002240 |    0.019239 |     -216.030382 | <-- min BFGS
 +------------+-------------+-------------+-----------------+ <-- min BFGS

 BFGS: finished iteration     2 with enthalpy= -2.16030382E+002 eV

 +-----------+-----------------+-----------------+------------+-----+ <-- BFGS
 | Parameter |      value      |    tolerance    |    units   | OK? | <-- BFGS
 +-----------+-----------------+-----------------+------------+-----+ <-- BFGS
 |  dE/ion   |   7.489617E-008 |   2.000000E-005 |         eV | Yes | <-- BFGS
 |   Smax    |   1.221589E+000 |   1.000000E-001 |        GPa | No  | <-- BFGS
 +-----------+-----------------+-----------------+------------+-----+ <-- BFGS


================================================================================
 Starting BFGS iteration          3 ...
================================================================================

 +------------+-------------+-------------+-----------------+ <-- min BFGS
 |    Step    |   lambda    |   F.delta'  |    enthalpy     | <-- min BFGS
 +------------+-------------+-------------+-----------------+ <-- min BFGS
 |  previous  |    0.000000 |    0.019239 |     -216.030382 | <-- min BFGS
 +------------+-------------+-------------+-----------------+ <-- min BFGS


--------------------------------------------------------------------------------
 BFGS: starting iteration         3 with trial guess (lambda=  1.000000)
--------------------------------------------------------------------------------

                           -------------------------------
                                      Unit Cell
                           -------------------------------
        Real Lattice(A)              Reciprocal Lattice(1/A)
   2.7304769   2.7304769   0.0000000        1.1505655   1.1505655  -1.1505655
   2.7304769   0.0000000   2.7304769        1.1505655  -1.1505655   1.1505655
   0.0000000   2.7304769   2.7304769       -1.1505655   1.1505655   1.1505655

                       Lattice parameters(A)       Cell Angles
                    a =    3.861477          alpha =   60.000000
                    b =    3.861477          beta  =   60.000000
                    c =    3.861477          gamma =   60.000000

                Current cell volume =   40.714165 A**3

------------------------------------------------------------------------ <-- SCF
SCF loop      Energy           Fermi           Energy gain       Timer   <-- SCF
                               energy          per atom          (sec)   <-- SCF
------------------------------------------------------------------------ <-- SCF
Initial  -2.16009252E+002  0.00000000E+000                         1.69  <-- SCF
      1  -2.16018241E+002  6.23904485E+000   4.49482862E-003       1.72  <-- SCF
      2  -2.16018289E+002  6.23904180E+000   2.37546006E-005       1.75  <-- SCF
      3  -2.16016482E+002  6.25819503E+000  -9.03532518E-004       1.78  <-- SCF
      4  -2.16016414E+002  6.26552202E+000  -3.38124989E-005       1.81  <-- SCF
      5  -2.16016425E+002  6.26578607E+000   5.46348593E-006       1.83  <-- SCF
      6  -2.16016426E+002  6.26596483E+000   2.30143795E-007       1.85  <-- SCF
------------------------------------------------------------------------ <-- SCF

Final energy, E             =  -216.0164234461     eV
Final free energy (E-TS)    =  -216.0164255224     eV
(energies not corrected for finite basis set)

NB est. 0K energy (E-0.5TS)      =  -216.0164244843     eV


 *********** Symmetrised Stress Tensor ***********
 *                                               *
 *          Cartesian components (GPa)           *
 * --------------------------------------------- *
 *             x             y             z     *
 *                                               *
 *  x      2.938268     -0.000000      0.000000  *
 *  y     -0.000000      2.938268      0.000000  *
 *  z      0.000000      0.000000      2.938268  *
 *                                               *
 *  Pressure:   -2.9383                          *
 *                                               *
 *************************************************

 +------------+-------------+-------------+-----------------+ <-- min BFGS
 |    Step    |   lambda    |   F.delta'  |    enthalpy     | <-- min BFGS
 +------------+-------------+-------------+-----------------+ <-- min BFGS
 |  previous  |    0.000000 |    0.019239 |     -216.030382 | <-- min BFGS
 | trial step |    1.000000 |   -0.046917 |     -216.020590 | <-- min BFGS
 +------------+-------------+-------------+-----------------+ <-- min BFGS


--------------------------------------------------------------------------------
 BFGS: improving iteration         3 with line minimization (lambda=  0.290817)
--------------------------------------------------------------------------------

                           -------------------------------
                                      Unit Cell
                           -------------------------------
        Real Lattice(A)              Reciprocal Lattice(1/A)
   2.7172093   2.7172093   0.0000000        1.1561835   1.1561835  -1.1561835
   2.7172093   0.0000000   2.7172093        1.1561835  -1.1561835   1.1561835
   0.0000000   2.7172093   2.7172093       -1.1561835   1.1561835   1.1561835

                       Lattice parameters(A)       Cell Angles
                    a =    3.842714          alpha =   60.000000
                    b =    3.842714          beta  =   60.000000
                    c =    3.842714          gamma =   60.000000

                Current cell volume =   40.123542 A**3

------------------------------------------------------------------------ <-- SCF
SCF loop      Energy           Fermi           Energy gain       Timer   <-- SCF
                               energy          per atom          (sec)   <-- SCF
------------------------------------------------------------------------ <-- SCF
Initial  -2.16036873E+002  0.00000000E+000                         1.88  <-- SCF
      1  -2.16030634E+002  6.42252062E+000  -3.11936464E-003       1.91  <-- SCF
      2  -2.16030642E+002  6.42251918E+000   3.77595056E-006       1.93  <-- SCF
      3  -2.16029850E+002  6.40871536E+000  -3.95982351E-004       1.96  <-- SCF
      4  -2.16029766E+002  6.40356715E+000  -4.21170640E-005       1.99  <-- SCF
      5  -2.16029760E+002  6.40337191E+000  -2.94398254E-006       2.01  <-- SCF
      6  -2.16029760E+002  6.40324943E+000  -7.24521738E-008       2.03  <-- SCF
------------------------------------------------------------------------ <-- SCF

Final energy, E             =  -216.0297569165     eV
Final free energy (E-TS)    =  -216.0297596535     eV
(energies not corrected for finite basis set)

NB est. 0K energy (E-0.5TS)      =  -216.0297582850     eV


 *********** Symmetrised Stress Tensor ***********
 *                                               *
 *          Cartesian components (GPa)           *
 * --------------------------------------------- *
 *             x             y             z     *
 *                                               *
 *  x      1.716623      0.000000      0.000000  *
 *  y      0.000000      1.716623      0.000000  *
 *  z      0.000000      0.000000      1.716623  *
 *                                               *
 *  Pressure:   -1.7166                          *
 *                                               *
 *************************************************

 +------------+-------------+-------------+-----------------+ <-- min BFGS
 |    Step    |   lambda    |   F.delta'  |    enthalpy     | <-- min BFGS
 +------------+-------------+-------------+-----------------+ <-- min BFGS
 |  previous  |    0.000000 |    0.019239 |     -216.030382 | <-- min BFGS
 | trial step |    1.000000 |   -0.046917 |     -216.020590 | <-- min BFGS
 |  line step |    0.290817 |   -0.027145 |     -216.029271 | <-- min BFGS
 +------------+-------------+-------------+-----------------+ <-- min BFGS


--------------------------------------------------------------------------------
 BFGS: improving iteration         3 with quad minimization (lambda=  0.001083)
--------------------------------------------------------------------------------

                           -------------------------------
                                      Unit Cell
                           -------------------------------
        Real Lattice(A)              Reciprocal Lattice(1/A)
   2.7117888   2.7117888   0.0000000        1.1584946   1.1584946  -1.1584946
   2.7117888   0.0000000   2.7117888        1.1584946  -1.1584946   1.1584946
   0.0000000   2.7117888   2.7117888       -1.1584946   1.1584946   1.1584946

                       Lattice parameters(A)       Cell Angles
                    a =    3.835049          alpha =   60.000000
                    b =    3.835049          beta  =   60.000000
                    c =    3.835049          gamma =   60.000000

                Current cell volume =   39.883898 A**3

------------------------------------------------------------------------ <-- SCF
SCF loop      Energy           Fermi           Energy gain       Timer   <-- SCF
                               energy          per atom          (sec)   <-- SCF
------------------------------------------------------------------------ <-- SCF
Initial  -2.16177359E+002  0.00000000E+000                         2.06  <-- SCF
      1  -2.16033387E+002  6.47128858E+000  -7.19858764E-002       2.08  <-- SCF
      2  -2.16033388E+002  6.47128837E+000   4.72114417E-007       2.10  <-- SCF
      3  -2.16033425E+002  6.46608536E+000   1.84996146E-005       2.12  <-- SCF
      4  -2.16033433E+002  6.46416848E+000   4.03729734E-006       2.14  <-- SCF
      5  -2.16033430E+002  6.46408565E+000  -1.79858088E-006       2.15  <-- SCF
------------------------------------------------------------------------ <-- SCF

Final energy, E             =  -216.0334265715     eV
Final free energy (E-TS)    =  -216.0334296468     eV
(energies not corrected for finite basis set)

NB est. 0K energy (E-0.5TS)      =  -216.0334281092     eV


 *********** Symmetrised Stress Tensor ***********
 *                                               *
 *          Cartesian components (GPa)           *
 * --------------------------------------------- *
 *             x             y             z     *
 *                                               *
 *  x     -1.220271      0.000000      0.000000  *
 *  y      0.000000     -1.220271      0.000000  *
 *  z      0.000000      0.000000     -1.220271  *
 *                                               *
 *  Pressure:    1.2203                          *
 *                                               *
 *************************************************

 +------------+-------------+-------------+-----------------+ <-- min BFGS
 |    Step    |   lambda    |   F.delta'  |    enthalpy     | <-- min BFGS
 +------------+-------------+-------------+-----------------+ <-- min BFGS
 |  previous  |    0.000000 |    0.019239 |     -216.030382 | <-- min BFGS
 | trial step |    1.000000 |   -0.046917 |     -216.020590 | <-- min BFGS
 |  line step |    0.290817 |   -0.027145 |     -216.029271 | <-- min BFGS
 |  quad step |    0.001083 |    0.019219 |     -216.030383 | <-- min BFGS
 +------------+-------------+-------------+-----------------+ <-- min BFGS

 BFGS: finished iteration     3 with enthalpy= -2.16030383E+002 eV

 +-----------+-----------------+-----------------+------------+-----+ <-- BFGS
 | Parameter |      value      |    tolerance    |    units   | OK? | <-- BFGS
 +-----------+-----------------+-----------------+------------+-----+ <-- BFGS
 |  dE/ion   |   5.851634E-007 |   2.000000E-005 |         eV | Yes | <-- BFGS
 |   Smax    |   1.220271E+000 |   1.000000E-001 |        GPa | No  | <-- BFGS
 +-----------+-----------------+-----------------+------------+-----+ <-- BFGS


================================================================================
 Starting BFGS iteration          4 ...
================================================================================

 +------------+-------------+-------------+-----------------+ <-- min BFGS
 |    Step    |   lambda    |   F.delta'  |    enthalpy     | <-- min BFGS
 +------------+-------------+-------------+-----------------+ <-- min BFGS
 |  previous  |    0.000000 |    0.019219 |     -216.030383 | <-- min BFGS
 +------------+-------------+-------------+-----------------+ <-- min BFGS


--------------------------------------------------------------------------------
 BFGS: starting iteration         4 with trial guess (lambda=  1.000000)
--------------------------------------------------------------------------------

                           -------------------------------
                                      Unit Cell
                           -------------------------------
        Real Lattice(A)              Reciprocal Lattice(1/A)
   2.7308214   2.7308214   0.0000000        1.1504204   1.1504204  -1.1504204
   2.7308214   0.0000000   2.7308214        1.1504204  -1.1504204   1.1504204
   0.0000000   2.7308214   2.7308214       -1.1504204   1.1504204   1.1504204

                       Lattice parameters(A)       Cell Angles
                    a =    3.861965          alpha =   60.000000
                    b =    3.861965          beta  =   60.000000
                    c =    3.861965          gamma =   60.000000

                Current cell volume =   40.729575 A**3

------------------------------------------------------------------------ <-- SCF
SCF loop      Energy           Fermi           Energy gain       Timer   <-- SCF
                               energy          per atom          (sec)   <-- SCF
------------------------------------------------------------------------ <-- SCF
Initial  -2.16008386E+002  0.00000000E+000                         2.18  <-- SCF
      1  -2.16022067E+002  6.23209536E+000   6.84003707E-003       2.21  <-- SCF
      2  -2.16022119E+002  6.23208282E+000   2.60988568E-005       2.24  <-- SCF
      3  -2.16020234E+002  6.25169209E+000  -9.42137598E-004       2.26  <-- SCF
      4  -2.16020163E+002  6.25918029E+000  -3.58237860E-005       2.31  <-- SCF
      5  -2.16020174E+002  6.25945006E+000   5.59552854E-006       2.33  <-- SCF
      6  -2.16020174E+002  6.25963264E+000   2.37680049E-007       2.35  <-- SCF
------------------------------------------------------------------------ <-- SCF

Final energy, E             =  -216.0201722165     eV
Final free energy (E-TS)    =  -216.0201744725     eV
(energies not corrected for finite basis set)

NB est. 0K energy (E-0.5TS)      =  -216.0201733445     eV


 *********** Symmetrised Stress Tensor ***********
 *                                               *
 *          Cartesian components (GPa)           *
 * --------------------------------------------- *
 *             x             y             z     *
 *                                               *
 *  x      2.962299      0.000000      0.000000  *
 *  y      0.000000      2.962299      0.000000  *
 *  z      0.000000      0.000000      2.962299  *
 *                                               *
 *  Pressure:   -2.9623                          *
 *                                               *
 *************************************************

 +------------+-------------+-------------+-----------------+ <-- min BFGS
 |    Step    |   lambda    |   F.delta'  |    enthalpy     | <-- min BFGS
 +------------+-------------+-------------+-----------------+ <-- min BFGS
 |  previous  |    0.000000 |    0.019219 |     -216.030383 | <-- min BFGS
 | trial step |    1.000000 |   -0.047313 |     -216.019961 | <-- min BFGS
 +------------+-------------+-------------+-----------------+ <-- min BFGS


--------------------------------------------------------------------------------
 BFGS: improving iteration         4 with line minimization (lambda=  0.288870)
--------------------------------------------------------------------------------

                           -------------------------------
                                      Unit Cell
                           -------------------------------
        Real Lattice(A)              Reciprocal Lattice(1/A)
   2.7172868   2.7172868   0.0000000        1.1561506   1.1561506  -1.1561506
   2.7172868   0.0000000   2.7172868        1.1561506  -1.1561506   1.1561506
   0.0000000   2.7172868   2.7172868       -1.1561506   1.1561506   1.1561506

                       Lattice parameters(A)       Cell Angles
                    a =    3.842824          alpha =   60.000000
                    b =    3.842824          beta  =   60.000000
                    c =    3.842824          gamma =   60.000000

                Current cell volume =   40.126974 A**3

------------------------------------------------------------------------ <-- SCF
SCF loop      Energy           Fermi           Energy gain       Timer   <-- SCF
                               energy          per atom          (sec)   <-- SCF
------------------------------------------------------------------------ <-- SCF
Initial  -2.16036601E+002  0.00000000E+000                         2.38  <-- SCF
      1  -2.16030556E+002  6.42209279E+000  -3.02230742E-003       2.41  <-- SCF
      2  -2.16030564E+002  6.42209100E+000   3.77636492E-006       2.44  <-- SCF
      3  -2.16029742E+002  6.40801173E+000  -4.10597481E-004       2.46  <-- SCF
      4  -2.16029656E+002  6.40276798E+000  -4.32886421E-005       2.49  <-- SCF
      5  -2.16029650E+002  6.40256555E+000  -2.98778642E-006       2.51  <-- SCF
      6  -2.16029650E+002  6.40244012E+000  -7.55043372E-008       2.53  <-- SCF
------------------------------------------------------------------------ <-- SCF

Final energy, E             =  -216.0296470413     eV
Final free energy (E-TS)    =  -216.0296497738     eV
(energies not corrected for finite basis set)

NB est. 0K energy (E-0.5TS)      =  -216.0296484076     eV


 *********** Symmetrised Stress Tensor ***********
 *                                               *
 *          Cartesian components (GPa)           *
 * --------------------------------------------- *
 *             x             y             z     *
 *                                               *
 *  x      1.724248      0.000000      0.000000  *
 *  y      0.000000      1.724248      0.000000  *
 *  z      0.000000      0.000000      1.724248  *
 *                                               *
 *  Pressure:   -1.7242                          *
 *                                               *
 *************************************************

 +------------+-------------+-------------+-----------------+ <-- min BFGS
 |    Step    |   lambda    |   F.delta'  |    enthalpy     | <-- min BFGS
 +------------+-------------+-------------+-----------------+ <-- min BFGS
 |  previous  |    0.000000 |    0.019219 |     -216.030383 | <-- min BFGS
 | trial step |    1.000000 |   -0.047313 |     -216.019961 | <-- min BFGS
 |  line step |    0.288870 |   -0.027267 |     -216.029236 | <-- min BFGS
 +------------+-------------+-------------+-----------------+ <-- min BFGS


--------------------------------------------------------------------------------
 BFGS: improving iteration         4 with quad minimization (lambda=  0.000503)
--------------------------------------------------------------------------------

                           -------------------------------
                                      Unit Cell
                           -------------------------------
        Real Lattice(A)              Reciprocal Lattice(1/A)
   2.7117984   2.7117984   0.0000000        1.1584905   1.1584905  -1.1584905
   2.7117984   0.0000000   2.7117984        1.1584905  -1.1584905   1.1584905
   0.0000000   2.7117984   2.7117984       -1.1584905   1.1584905   1.1584905

                       Lattice parameters(A)       Cell Angles
                    a =    3.835062          alpha =   60.000000
                    b =    3.835062          beta  =   60.000000
                    c =    3.835062          gamma =   60.000000

                Current cell volume =   39.884321 A**3

------------------------------------------------------------------------ <-- SCF
SCF loop      Energy           Fermi           Energy gain       Timer   <-- SCF
                               energy          per atom          (sec)   <-- SCF
------------------------------------------------------------------------ <-- SCF
Initial  -2.16177347E+002  0.00000000E+000                         2.55  <-- SCF
      1  -2.16033379E+002  6.47128612E+000  -7.19840038E-002       2.58  <-- SCF
      2  -2.16033380E+002  6.47128590E+000   4.83311604E-007       2.59  <-- SCF
      3  -2.16033416E+002  6.46601218E+000   1.79761091E-005       2.62  <-- SCF
      4  -2.16033424E+002  6.46406922E+000   4.05039312E-006       2.63  <-- SCF
      5  -2.16033421E+002  6.46398533E+000  -1.82222305E-006       2.65  <-- SCF
------------------------------------------------------------------------ <-- SCF

Final energy, E             =  -216.0334175668     eV
Final free energy (E-TS)    =  -216.0334206415     eV
(energies not corrected for finite basis set)

NB est. 0K energy (E-0.5TS)      =  -216.0334191041     eV


 *********** Symmetrised Stress Tensor ***********
 *                                               *
 *          Cartesian components (GPa)           *
 * --------------------------------------------- *
 *             x             y             z     *
 *                                               *
 *  x     -1.219306      0.000000      0.000000  *
 *  y      0.000000     -1.219306      0.000000  *
 *  z      0.000000      0.000000     -1.219306  *
 *                                               *
 *  Pressure:    1.2193                          *
 *                                               *
 *************************************************

 +------------+-------------+-------------+-----------------+ <-- min BFGS
 |    Step    |   lambda    |   F.delta'  |    enthalpy     | <-- min BFGS
 +------------+-------------+-------------+-----------------+ <-- min BFGS
 |  previous  |    0.000000 |    0.019219 |     -216.030383 | <-- min BFGS
 | trial step |    1.000000 |   -0.047313 |     -216.019961 | <-- min BFGS
 |  line step |    0.288870 |   -0.027267 |     -216.029236 | <-- min BFGS
 |  quad step |    0.000503 |    0.019204 |     -216.030383 | <-- min BFGS
 +------------+-------------+-------------+-----------------+ <-- min BFGS

 BFGS: finished iteration     4 with enthalpy= -2.16030383E+002 eV

 +-----------+-----------------+-----------------+------------+-----+ <-- BFGS
 | Parameter |      value      |    tolerance    |    units   | OK? | <-- BFGS
 +-----------+-----------------+-----------------+------------+-----+ <-- BFGS
 |  dE/ion   |   1.353731E-007 |   2.000000E-005 |         eV | Yes | <-- BFGS
 |   Smax    |   1.219306E+000 |   1.000000E-001 |        GPa | No  | <-- BFGS
 +-----------+-----------------+-----------------+------------+-----+ <-- BFGS


================================================================================
 Starting BFGS iteration          5 ...
================================================================================

 +------------+-------------+-------------+-----------------+ <-- min BFGS
 |    Step    |   lambda    |   F.delta'  |    enthalpy     | <-- min BFGS
 +------------+-------------+-------------+-----------------+ <-- min BFGS
 |  previous  |    0.000000 |    0.019204 |     -216.030383 | <-- min BFGS
 +------------+-------------+-------------+-----------------+ <-- min BFGS


--------------------------------------------------------------------------------
 BFGS: starting iteration         5 with trial guess (lambda=  1.000000)
--------------------------------------------------------------------------------

                           -------------------------------
                                      Unit Cell
                           -------------------------------
        Real Lattice(A)              Reciprocal Lattice(1/A)
   2.7240065   2.7240065   0.0000000        1.1532985   1.1532985  -1.1532985
   2.7240065   0.0000000   2.7240065        1.1532985  -1.1532985   1.1532985
   0.0000000   2.7240065   2.7240065       -1.1532985   1.1532985   1.1532985

                       Lattice parameters(A)       Cell Angles
                    a =    3.852327          alpha =   60.000000
                    b =    3.852327          beta  =   60.000000
                    c =    3.852327          gamma =   60.000000

                Current cell volume =   40.425409 A**3

------------------------------------------------------------------------ <-- SCF
SCF loop      Energy           Fermi           Energy gain       Timer   <-- SCF
                               energy          per atom          (sec)   <-- SCF
------------------------------------------------------------------------ <-- SCF
Initial  -2.16024358E+002  0.00000000E+000                         2.68  <-- SCF
      1  -2.16028014E+002  6.31533431E+000   1.82761123E-003       2.70  <-- SCF
      2  -2.16028049E+002  6.31533308E+000   1.75005801E-005       2.73  <-- SCF
      3  -2.16027264E+002  6.32776296E+000  -3.92299820E-004       2.76  <-- SCF
      4  -2.16027245E+002  6.33246802E+000  -9.33360049E-006       2.79  <-- SCF
      5  -2.16027252E+002  6.33264192E+000   3.35463261E-006       2.82  <-- SCF
------------------------------------------------------------------------ <-- SCF

Final energy, E             =  -216.0272496585     eV
Final free energy (E-TS)    =  -216.0272520378     eV
(energies not corrected for finite basis set)

NB est. 0K energy (E-0.5TS)      =  -216.0272508481     eV


 *********** Symmetrised Stress Tensor ***********
 *                                               *
 *          Cartesian components (GPa)           *
 * --------------------------------------------- *
 *             x             y             z     *
 *                                               *
 *  x      2.330875      0.000000      0.000000  *
 *  y      0.000000      2.330875      0.000000  *
 *  z      0.000000      0.000000      2.330875  *
 *                                               *
 *  Pressure:   -2.3309                          *
 *                                               *
 *************************************************

 +------------+-------------+-------------+-----------------+ <-- min BFGS
 |    Step    |   lambda    |   F.delta'  |    enthalpy     | <-- min BFGS
 +------------+-------------+-------------+-----------------+ <-- min BFGS
 |  previous  |    0.000000 |    0.019204 |     -216.030383 | <-- min BFGS
 | trial step |    1.000000 |   -0.037042 |     -216.025186 | <-- min BFGS
 +------------+-------------+-------------+-----------------+ <-- min BFGS


--------------------------------------------------------------------------------
 BFGS: improving iteration         5 with line minimization (lambda=  0.341426)
--------------------------------------------------------------------------------

                           -------------------------------
                                      Unit Cell
                           -------------------------------
        Real Lattice(A)              Reciprocal Lattice(1/A)
   2.7159666   2.7159666   0.0000000        1.1567126   1.1567126  -1.1567126
   2.7159666   0.0000000   2.7159666        1.1567126  -1.1567126   1.1567126
   0.0000000   2.7159666   2.7159666       -1.1567126   1.1567126   1.1567126

                       Lattice parameters(A)       Cell Angles
                    a =    3.840957          alpha =   60.000000
                    b =    3.840957          beta  =   60.000000
                    c =    3.840957          gamma =   60.000000

                Current cell volume =   40.068516 A**3

------------------------------------------------------------------------ <-- SCF
SCF loop      Energy           Fermi           Energy gain       Timer   <-- SCF
                               energy          per atom          (sec)   <-- SCF
------------------------------------------------------------------------ <-- SCF
Initial  -2.16037914E+002  0.00000000E+000                         2.85  <-- SCF
      1  -2.16028803E+002  6.42791183E+000  -4.55549650E-003       2.87  <-- SCF
      2  -2.16028806E+002  6.42791134E+000   1.47113246E-006       2.90  <-- SCF
      3  -2.16028532E+002  6.41945773E+000  -1.37030611E-004       2.93  <-- SCF
      4  -2.16028494E+002  6.41634238E+000  -1.90316499E-005       2.95  <-- SCF
      5  -2.16028490E+002  6.41620012E+000  -1.74396445E-006       2.97  <-- SCF
      6  -2.16028490E+002  6.41611107E+000  -5.28776179E-008       2.99  <-- SCF
------------------------------------------------------------------------ <-- SCF

Final energy, E             =  -216.0284875301     eV
Final free energy (E-TS)    =  -216.0284903352     eV
(energies not corrected for finite basis set)

NB est. 0K energy (E-0.5TS)      =  -216.0284889326     eV


 *********** Symmetrised Stress Tensor ***********
 *                                               *
 *          Cartesian components (GPa)           *
 * --------------------------------------------- *
 *             x             y             z     *
 *                                               *
 *  x      1.594239     -0.000000      0.000000  *
 *  y     -0.000000      1.594239      0.000000  *
 *  z      0.000000      0.000000      1.594239  *
 *                                               *
 *  Pressure:   -1.5942                          *
 *                                               *
 *************************************************

 +------------+-------------+-------------+-----------------+ <-- min BFGS
 |    Step    |   lambda    |   F.delta'  |    enthalpy     | <-- min BFGS
 +------------+-------------+-------------+-----------------+ <-- min BFGS
 |  previous  |    0.000000 |    0.019204 |     -216.030383 | <-- min BFGS
 | trial step |    1.000000 |   -0.037042 |     -216.025186 | <-- min BFGS
 |  line step |    0.341426 |   -0.025186 |     -216.029487 | <-- min BFGS
 +------------+-------------+-------------+-----------------+ <-- min BFGS


--------------------------------------------------------------------------------
 BFGS: improving iteration         5 with quad minimization (lambda=  0.001109)
--------------------------------------------------------------------------------

                           -------------------------------
                                      Unit Cell
                           -------------------------------
        Real Lattice(A)              Reciprocal Lattice(1/A)
   2.7118119   2.7118119   0.0000000        1.1584847   1.1584847  -1.1584847
   2.7118119   0.0000000   2.7118119        1.1584847  -1.1584847   1.1584847
   0.0000000   2.7118119   2.7118119       -1.1584847   1.1584847   1.1584847

                       Lattice parameters(A)       Cell Angles
                    a =    3.835081          alpha =   60.000000
                    b =    3.835081          beta  =   60.000000
                    c =    3.835081          gamma =   60.000000

                Current cell volume =   39.884918 A**3

------------------------------------------------------------------------ <-- SCF
SCF loop      Energy           Fermi           Energy gain       Timer   <-- SCF
                               energy          per atom          (sec)   <-- SCF
------------------------------------------------------------------------ <-- SCF
Initial  -2.16177496E+002  0.00000000E+000                         3.02  <-- SCF
      1  -2.16033350E+002  6.46918415E+000  -7.20730611E-002       3.04  <-- SCF
      2  -2.16033351E+002  6.46918402E+000   2.33057182E-007       3.06  <-- SCF
      3  -2.16033402E+002  6.46532053E+000   2.56812620E-005       3.08  <-- SCF
      4  -2.16033412E+002  6.46386247E+000   4.86687607E-006       3.09  <-- SCF
      5  -2.16033407E+002  6.46386159E+000  -2.25517209E-006       3.11  <-- SCF
------------------------------------------------------------------------ <-- SCF

Final energy, E             =  -216.0334042045     eV
Final free energy (E-TS)    =  -216.0334072798     eV
(energies not corrected for finite basis set)

NB est. 0K energy (E-0.5TS)      =  -216.0334057421     eV


 *********** Symmetrised Stress Tensor ***********
 *                                               *
 *          Cartesian components (GPa)           *
 * --------------------------------------------- *
 *             x             y             z     *
 *                                               *
 *  x     -1.217313      0.000000      0.000000  *
 *  y      0.000000     -1.217313      0.000000  *
 *  z      0.000000      0.000000     -1.217313  *
 *                                               *
 *  Pressure:    1.2173                          *
 *                                               *
 *************************************************

 +------------+-------------+-------------+-----------------+ <-- min BFGS
 |    Step    |   lambda    |   F.delta'  |    enthalpy     | <-- min BFGS
 +------------+-------------+-------------+-----------------+ <-- min BFGS
 |  previous  |    0.000000 |    0.019204 |     -216.030383 | <-- min BFGS
 | trial step |    1.000000 |   -0.037042 |     -216.025186 | <-- min BFGS
 |  line step |    0.341426 |   -0.025186 |     -216.029487 | <-- min BFGS
 |  quad step |    0.001109 |    0.019173 |     -216.030383 | <-- min BFGS
 +------------+-------------+-------------+-----------------+ <-- min BFGS

 BFGS: finished iteration     5 with enthalpy= -2.16030383E+002 eV

 +-----------+-----------------+-----------------+------------+-----+ <-- BFGS
 | Parameter |      value      |    tolerance    |    units   | OK? | <-- BFGS
 +-----------+-----------------+-----------------+------------+-----+ <-- BFGS
 |  dE/ion   |   1.260395E-007 |   2.000000E-005 |         eV | Yes | <-- BFGS
 |   Smax    |   1.217313E+000 |   1.000000E-001 |        GPa | No  | <-- BFGS
 +-----------+-----------------+-----------------+------------+-----+ <-- BFGS


================================================================================
 Starting BFGS iteration          6 ...
================================================================================

 +------------+-------------+-------------+-----------------+ <-- min BFGS
 |    Step    |   lambda    |   F.delta'  |    enthalpy     | <-- min BFGS
 +------------+-------------+-------------+-----------------+ <-- min BFGS
 |  previous  |    0.000000 |    0.019173 |     -216.030383 | <-- min BFGS
 +------------+-------------+-------------+-----------------+ <-- min BFGS


--------------------------------------------------------------------------------
 BFGS: starting iteration         6 with trial guess (lambda=  1.000000)
--------------------------------------------------------------------------------

                           -------------------------------
                                      Unit Cell
                           -------------------------------
        Real Lattice(A)              Reciprocal Lattice(1/A)
   2.7201307   2.7201307   0.0000000        1.1549418   1.1549418  -1.1549418
   2.7201307   0.0000000   2.7201307        1.1549418  -1.1549418   1.1549418
   0.0000000   2.7201307   2.7201307       -1.1549418   1.1549418   1.1549418

                       Lattice parameters(A)       Cell Angles
                    a =    3.846846          alpha =   60.000000
                    b =    3.846846          beta  =   60.000000
                    c =    3.846846          gamma =   60.000000

                Current cell volume =   40.253096 A**3

------------------------------------------------------------------------ <-- SCF
SCF loop      Energy           Fermi           Energy gain       Timer   <-- SCF
                               energy          per atom          (sec)   <-- SCF
------------------------------------------------------------------------ <-- SCF
Initial  -2.16032007E+002  0.00000000E+000                         3.13  <-- SCF
      1  -2.16025851E+002  6.36124598E+000  -3.07772462E-003       3.16  <-- SCF
      2  -2.16025861E+002  6.36124546E+000   4.90942867E-006       3.18  <-- SCF
      3  -2.16025502E+002  6.36949141E+000  -1.79704285E-004       3.21  <-- SCF
      4  -2.16025500E+002  6.37258107E+000  -1.02287429E-006       3.23  <-- SCF
      5  -2.16025504E+002  6.37271321E+000   2.17128568E-006       3.25  <-- SCF
------------------------------------------------------------------------ <-- SCF

Final energy, E             =  -216.0255012771     eV
Final free energy (E-TS)    =  -216.0255038498     eV
(energies not corrected for finite basis set)

NB est. 0K energy (E-0.5TS)      =  -216.0255025635     eV


 *********** Symmetrised Stress Tensor ***********
 *                                               *
 *          Cartesian components (GPa)           *
 * --------------------------------------------- *
[...]
 BFGS: improving iteration        29 with quad minimization (lambda= -0.000227)
--------------------------------------------------------------------------------

                           -------------------------------
                                      Unit Cell
                           -------------------------------
        Real Lattice(A)              Reciprocal Lattice(1/A)
   2.7118491   2.7118491  -0.0000000        1.1584688   1.1584688  -1.1584688
   2.7118491   0.0000000   2.7118491        1.1584688  -1.1584688   1.1584688
  -0.0000000   2.7118491   2.7118491       -1.1584688   1.1584688   1.1584688

                       Lattice parameters(A)       Cell Angles
                    a =    3.835134          alpha =   60.000000
                    b =    3.835134          beta  =   60.000000
                    c =    3.835134          gamma =   60.000000

                Current cell volume =   39.886558 A**3

------------------------------------------------------------------------ <-- SCF
SCF loop      Energy           Fermi           Energy gain       Timer   <-- SCF
                               energy          per atom          (sec)   <-- SCF
------------------------------------------------------------------------ <-- SCF
Initial  -2.16177333E+002  0.00000000E+000                        15.95  <-- SCF
      1  -2.16033330E+002  6.47057586E+000  -7.20015728E-002      15.97  <-- SCF
      2  -2.16033331E+002  6.47057566E+000   4.63341191E-007      15.99  <-- SCF
      3  -2.16033368E+002  6.46542870E+000   1.89059728E-005      16.02  <-- SCF
      4  -2.16033376E+002  6.46353237E+000   4.02818619E-006      16.03  <-- SCF
      5  -2.16033373E+002  6.46345035E+000  -1.77992621E-006      16.05  <-- SCF
------------------------------------------------------------------------ <-- SCF

Final energy, E             =  -216.0333698078     eV
Final free energy (E-TS)    =  -216.0333728791     eV
(energies not corrected for finite basis set)

NB est. 0K energy (E-0.5TS)      =  -216.0333713434     eV


 *********** Symmetrised Stress Tensor ***********
 *                                               *
 *          Cartesian components (GPa)           *
 * --------------------------------------------- *
 *             x             y             z     *
 *                                               *
 *  x     -1.214347      0.000000      0.000000  *
 *  y      0.000000     -1.214347      0.000000  *
 *  z      0.000000      0.000000     -1.214347  *
 *                                               *
 *  Pressure:    1.2143                          *
 *                                               *
 *************************************************

 +------------+-------------+-------------+-----------------+ <-- min BFGS
 |    Step    |   lambda    |   F.delta'  |    enthalpy     | <-- min BFGS
 +------------+-------------+-------------+-----------------+ <-- min BFGS
 |  previous  |    0.000000 |    0.019122 |     -216.030384 | <-- min BFGS
 | trial step |    1.000000 |   -0.046650 |     -216.020731 | <-- min BFGS
 |  line step |    0.290734 |   -0.027156 |     -216.029267 | <-- min BFGS
 |  quad step |   -0.000227 |    0.019127 |     -216.030385 | <-- min BFGS
 +------------+-------------+-------------+-----------------+ <-- min BFGS

 BFGS: finished iteration    29 with enthalpy= -2.16030385E+002 eV

 +-----------+-----------------+-----------------+------------+-----+ <-- BFGS
 | Parameter |      value      |    tolerance    |    units   | OK? | <-- BFGS
 +-----------+-----------------+-----------------+------------+-----+ <-- BFGS
 |  dE/ion   |   2.323526E-007 |   2.000000E-005 |         eV | Yes | <-- BFGS
 |   Smax    |   1.214347E+000 |   1.000000E-001 |        GPa | No  | <-- BFGS
 +-----------+-----------------+-----------------+------------+-----+ <-- BFGS


================================================================================
 Starting BFGS iteration         30 ...
================================================================================

 +------------+-------------+-------------+-----------------+ <-- min BFGS
 |    Step    |   lambda    |   F.delta'  |    enthalpy     | <-- min BFGS
 +------------+-------------+-------------+-----------------+ <-- min BFGS
 |  previous  |    0.000000 |    0.019127 |     -216.030385 | <-- min BFGS
 +------------+-------------+-------------+-----------------+ <-- min BFGS


--------------------------------------------------------------------------------
 BFGS: starting iteration        30 with trial guess (lambda=  1.000000)
--------------------------------------------------------------------------------

                           -------------------------------
                                      Unit Cell
                           -------------------------------
        Real Lattice(A)              Reciprocal Lattice(1/A)
   2.7301690   2.7301690  -0.0000000        1.1506953   1.1506953  -1.1506953
   2.7301690   0.0000000   2.7301690        1.1506953  -1.1506953   1.1506953
  -0.0000000   2.7301690   2.7301690       -1.1506953   1.1506953   1.1506953

                       Lattice parameters(A)       Cell Angles
                    a =    3.861042          alpha =   60.000000
                    b =    3.861042          beta  =   60.000000
                    c =    3.861042          gamma =   60.000000

                Current cell volume =   40.700393 A**3

------------------------------------------------------------------------ <-- SCF
SCF loop      Energy           Fermi           Energy gain       Timer   <-- SCF
                               energy          per atom          (sec)   <-- SCF
------------------------------------------------------------------------ <-- SCF
Initial  -2.16010101E+002  0.00000000E+000                        16.08  <-- SCF
      1  -2.16018705E+002  6.24278612E+000   4.30202731E-003      16.10  <-- SCF
      2  -2.16018752E+002  6.24278320E+000   2.33755473E-005      16.13  <-- SCF
      3  -2.16017018E+002  6.26152946E+000  -8.66743226E-004      16.16  <-- SCF
      4  -2.16016954E+002  6.26869833E+000  -3.19437636E-005      16.19  <-- SCF
      5  -2.16016965E+002  6.26895659E+000   5.32858362E-006      16.21  <-- SCF
      6  -2.16016966E+002  6.26913132E+000   2.23264672E-007      16.23  <-- SCF
------------------------------------------------------------------------ <-- SCF

Final energy, E             =  -216.0169634268     eV
Final free energy (E-TS)    =  -216.0169655165     eV
(energies not corrected for finite basis set)

NB est. 0K energy (E-0.5TS)      =  -216.0169644717     eV


 *********** Symmetrised Stress Tensor ***********
 *                                               *
 *          Cartesian components (GPa)           *
 * --------------------------------------------- *
 *             x             y             z     *
 *                                               *
 *  x      2.909909     -0.000000      0.000000  *
 *  y     -0.000000      2.909909      0.000000  *
 *  z      0.000000      0.000000      2.909909  *
 *                                               *
 *  Pressure:   -2.9099                          *
 *                                               *
 *************************************************

 +------------+-------------+-------------+-----------------+ <-- min BFGS
 |    Step    |   lambda    |   F.delta'  |    enthalpy     | <-- min BFGS
 +------------+-------------+-------------+-----------------+ <-- min BFGS
 |  previous  |    0.000000 |    0.019127 |     -216.030385 | <-- min BFGS
 | trial step |    1.000000 |   -0.046454 |     -216.020834 | <-- min BFGS
 +------------+-------------+-------------+-----------------+ <-- min BFGS


--------------------------------------------------------------------------------
 BFGS: improving iteration        30 with line minimization (lambda=  0.291651)
--------------------------------------------------------------------------------

                           -------------------------------
                                      Unit Cell
                           -------------------------------
        Real Lattice(A)              Reciprocal Lattice(1/A)
   2.7171921   2.7171921  -0.0000000        1.1561908   1.1561908  -1.1561908
   2.7171921   0.0000000   2.7171921        1.1561908  -1.1561908   1.1561908
  -0.0000000   2.7171921   2.7171921       -1.1561908   1.1561908   1.1561908

                       Lattice parameters(A)       Cell Angles
                    a =    3.842690          alpha =   60.000000
                    b =    3.842690          beta  =   60.000000
                    c =    3.842690          gamma =   60.000000

                Current cell volume =   40.122782 A**3

------------------------------------------------------------------------ <-- SCF
SCF loop      Energy           Fermi           Energy gain       Timer   <-- SCF
                               energy          per atom          (sec)   <-- SCF
------------------------------------------------------------------------ <-- SCF
Initial  -2.16037060E+002  0.00000000E+000                        16.27  <-- SCF
      1  -2.16030620E+002  6.42227985E+000  -3.21983101E-003      16.29  <-- SCF
      2  -2.16030627E+002  6.42227847E+000   3.62980285E-006      16.32  <-- SCF
      3  -2.16029871E+002  6.40877531E+000  -3.78010385E-004      16.35  <-- SCF
      4  -2.16029790E+002  6.40373923E+000  -4.06102118E-005      16.38  <-- SCF
      5  -2.16029784E+002  6.40354820E+000  -2.88668222E-006      16.40  <-- SCF
      6  -2.16029784E+002  6.40342835E+000  -7.17735809E-008      16.42  <-- SCF
------------------------------------------------------------------------ <-- SCF

Final energy, E             =  -216.0297812032     eV
Final free energy (E-TS)    =  -216.0297839412     eV
(energies not corrected for finite basis set)

NB est. 0K energy (E-0.5TS)      =  -216.0297825722     eV


 *********** Symmetrised Stress Tensor ***********
 *                                               *
 *          Cartesian components (GPa)           *
 * --------------------------------------------- *
 *             x             y             z     *
 *                                               *
 *  x      1.714934     -0.000000      0.000000  *
 *  y     -0.000000      1.714934      0.000000  *
 *  z      0.000000      0.000000      1.714934  *
 *                                               *
 *  Pressure:   -1.7149                          *
 *                                               *
 *************************************************

 +------------+-------------+-------------+-----------------+ <-- min BFGS
 |    Step    |   lambda    |   F.delta'  |    enthalpy     | <-- min BFGS
 +------------+-------------+-------------+-----------------+ <-- min BFGS
 |  previous  |    0.000000 |    0.019127 |     -216.030385 | <-- min BFGS
 | trial step |    1.000000 |   -0.046454 |     -216.020834 | <-- min BFGS
 |  line step |    0.291651 |   -0.027118 |     -216.029278 | <-- min BFGS
 +------------+-------------+-------------+-----------------+ <-- min BFGS


--------------------------------------------------------------------------------
 BFGS: improving iteration        30 with quad minimization (lambda= -0.000160)
--------------------------------------------------------------------------------

                           -------------------------------
                                      Unit Cell
                           -------------------------------
        Real Lattice(A)              Reciprocal Lattice(1/A)
   2.7118462   2.7118462  -0.0000000        1.1584701   1.1584701  -1.1584701
   2.7118462   0.0000000   2.7118462        1.1584701  -1.1584701   1.1584701
  -0.0000000   2.7118462   2.7118462       -1.1584701   1.1584701   1.1584701

                       Lattice parameters(A)       Cell Angles
                    a =    3.835130          alpha =   60.000000
                    b =    3.835130          beta  =   60.000000
                    c =    3.835130          gamma =   60.000000

                Current cell volume =   39.886429 A**3

------------------------------------------------------------------------ <-- SCF
SCF loop      Energy           Fermi           Energy gain       Timer   <-- SCF
                               energy          per atom          (sec)   <-- SCF
------------------------------------------------------------------------ <-- SCF
Initial  -2.16177336E+002  0.00000000E+000                        16.45  <-- SCF
      1  -2.16033332E+002  6.47057606E+000  -7.20021104E-002      16.48  <-- SCF
      2  -2.16033333E+002  6.47057585E+000   4.59930632E-007      16.50  <-- SCF
      3  -2.16033371E+002  6.46545090E+000   1.90587174E-005      16.52  <-- SCF
      4  -2.16033379E+002  6.46356267E+000   4.02338922E-006      16.54  <-- SCF
      5  -2.16033376E+002  6.46348098E+000  -1.77255964E-006      16.56  <-- SCF
------------------------------------------------------------------------ <-- SCF

Final energy, E             =  -216.0333725622     eV
Final free energy (E-TS)    =  -216.0333756337     eV
(energies not corrected for finite basis set)

NB est. 0K energy (E-0.5TS)      =  -216.0333740979     eV


 *********** Symmetrised Stress Tensor ***********
 *                                               *
 *          Cartesian components (GPa)           *
 * --------------------------------------------- *
 *             x             y             z     *
 *                                               *
 *  x     -1.214642      0.000000      0.000000  *
 *  y      0.000000     -1.214642      0.000000  *
 *  z      0.000000      0.000000     -1.214642  *
 *                                               *
 *  Pressure:    1.2146                          *
 *                                               *
 *************************************************

 +------------+-------------+-------------+-----------------+ <-- min BFGS
 |    Step    |   lambda    |   F.delta'  |    enthalpy     | <-- min BFGS
 +------------+-------------+-------------+-----------------+ <-- min BFGS
 |  previous  |    0.000000 |    0.019127 |     -216.030385 | <-- min BFGS
 | trial step |    1.000000 |   -0.046454 |     -216.020834 | <-- min BFGS
 |  line step |    0.291651 |   -0.027118 |     -216.029278 | <-- min BFGS
 |  quad step |   -0.000160 |    0.019131 |     -216.030384 | <-- min BFGS
 +------------+-------------+-------------+-----------------+ <-- min BFGS

 BFGS: finished iteration    30 with enthalpy= -2.16030384E+002 eV

 +-----------+-----------------+-----------------+------------+-----+ <-- BFGS
 | Parameter |      value      |    tolerance    |    units   | OK? | <-- BFGS
 +-----------+-----------------+-----------------+------------+-----+ <-- BFGS
 |  dE/ion   |   3.923083E-008 |   2.000000E-005 |         eV | Yes | <-- BFGS
 |   Smax    |   1.214642E+000 |   1.000000E-001 |        GPa | No  | <-- BFGS
 +-----------+-----------------+-----------------+------------+-----+ <-- BFGS

 BFGS: WARNING - Geometry optimization failed to converge after         30 steps

================================================================================
 BFGS: Final Configuration:
================================================================================

                           -------------------------------
                                      Unit Cell
                           -------------------------------
        Real Lattice(A)              Reciprocal Lattice(1/A)
   2.7118462   2.7118462  -0.0000000        1.1584701   1.1584701  -1.1584701
   2.7118462   0.0000000   2.7118462        1.1584701  -1.1584701   1.1584701
  -0.0000000   2.7118462   2.7118462       -1.1584701   1.1584701   1.1584701

                       Lattice parameters(A)       Cell Angles
                    a =    3.835130          alpha =   60.000000
                    b =    3.835130          beta  =   60.000000
                    c =    3.835130          gamma =   60.000000

                Current cell volume =   39.886429 A**3

 BFGS: Final Enthalpy     = -2.16030384E+002 eV
 BFGS: Final bulk modulus unchanged from initial value

  **********************************************************
  *** There were at least     1 warnings during this run ***
  *** => please check the whole of this file carefully!  ***
  **********************************************************

 ******************* Unconstrained Forces *******************
 *                                                          *
 *               Cartesian components (eV/A)                *
 * -------------------------------------------------------- *
 *                         x            y            z      *
 *                                                          *
 * Si              1      0.00000      0.00000     -0.00000 *
 * Si              2      0.00000      0.00000      0.00000 *
 *                                                          *
 ************************************************************

 ************************** Constrained Symmetrised Forces **************************
 *                                                                                  *
 *                           Cartesian components (eV/A)                            *
 * -------------------------------------------------------------------------------- *
 *                         x                    y                    z              *
 *                                                                                  *
 * Si              1      0.00000              0.00000              0.00000         *
 * Si              2      0.00000              0.00000              0.00000         *
 *                                                                                  *
 ************************************************************************************

 *********** Symmetrised Stress Tensor ***********
 *                                               *
 *          Cartesian components (GPa)           *
 * --------------------------------------------- *
 *             x             y             z     *
 *                                               *
 *  x     -1.214642      0.000000      0.000000  *
 *  y      0.000000     -1.214642      0.000000  *
 *  z      0.000000      0.000000     -1.214642  *
 *                                               *
 *  Pressure:    1.2146                          *
 *                                               *
 *************************************************

 Pseudo atomic calculation performed for Si 3s2 3p2

 Converged in 16 iterations to a total energy of -102.0354 eV

Charge spilling parameter for spin component 1 = 1.05%

     Atomic Populations (Mulliken)
     -----------------------------
Species          Ion     s      p      d      f     Total  Charge (e)
=====================================================================
  Si              1     1.36   2.64   0.00   0.00   4.00     0.00
  Si              2     1.36   2.64   0.00   0.00   4.00     0.00
=====================================================================

                 Bond                   Population      Length (A)
======================================================================
              Si 1 -- Si 2                   2.97        2.34853
======================================================================

Initialisation time =      0.17 s
Calculation time    =     16.44 s
Finalisation time   =      0.00 s
Total time          =     16.61 s
Peak Memory Use     = 112332 kB

Overall parallel efficiency rating: Mediocre (57%)

Data was distributed by:-
G-vector (2-way); efficiency rating: Satisfactory (61%)
k-point (2-way); efficiency rating: Excellent (93%)

Parallel notes:
1) Calculation only took 16.6 s, so efficiency estimates may be inaccurate.
